title                   = 
define                  =     

; Parameters describing what to do, when to stop and what to save
integrator              = md        ; leap-frog integrator
dt                      = 0.002     ; 2 fs
nsteps                  = 250000000 ; 500ns

continuation            = yes

; GENERATE VELOCITIES FOR STARTUP RUN
gen_vel                  = no 

; Pressure coupling is on
pcoupl                  = C-rescale     ; Pressure coupling on in NPT
pcoupltype              = isotropic             ; uniform scaling of box vectors
tau_p                   = 5.0                ; time constant, in ps
ref_p                   = 1.0                ; reference pressure, in bar
compressibility         = 4.5e-5                ; isothermal compressibility of water, bar^-1
refcoord_scaling        = com

; Keep system temperature fluctuating physically correct
tcoupl                  = V-rescale           ; modified Berendsen thermostat
tc-grps                 = Protein Water_and_ions
tau_t                   = 0.1 0.1  ; time constant, in ps
ref_t                   = 300 300      ; reference temperature, one for each group, in K

; Settings that make sure we run with parameters in harmony with the selected force-field
; Bond parameters
constraint_algorithm    = lincs	    ; holonomic constraints 
constraints	            = all-bonds	; all bonds (even heavy atom-H bonds) constrained
lincs_iter	            = 1		    ; accuracy of LINCS
lincs_order	            = 4		    ; also related to accuracy

; Neighborsearching
cutoff-scheme   	= Verlet
ns_type		    	= grid		; search neighboring grid cells
pbc                 = xyz               ; type of pbc

; electrostatic
rcoulomb            = 1.0               ; short-range electrostatic cutoff (in nm)
coulombtype         = pme               ; electrostatic type
pme_order	    	= 4		; cubic interpolation
fourierspacing      = 0.16              ; fourier grid spacing

; vdw
rvdw                = 1.0               ; short-range van der Waals cutoff (in nm)
; Dispersion correction
DispCorr		= EnerPres	            ; account for cut-off vdW scheme

; OUTPUT CONTROL OPTIONS
; Output frequency for coords (x), velocities (v) and forces (f)
nstxout                  = 10000
nstvout                  = 10000
nstfout                  = 0
; Output frequency for energies to log file and energy file
nstlog                   = 500
nstenergy                = 500
; Output frequency and precision for xtc file
nstxtcout                = 500
xtc-precision            = 1000
