title                   = Amber NPT equilibration  
define                  = -DPOSRES -DPOSRES_FC_BB=1000.0 -DPOSRES_FC_SC=500.0 

; Parameters describing what to do, when to stop and what to save
integrator              = md        ; leap-frog integrator
dt                      = 0.001     ; 1 fs
nsteps                  = 3000000    ; 1000 ps

continuation            = no

; GENERATE VELOCITIES FOR STARTUP RUN
gen_vel                  = yes
gen-temp                 = 100
gen-seed                 = -1

; Pressure coupling is on
pcoupl                  = C-rescale     ; Pressure coupling on in NPT
pcoupltype              = isotropic             ; uniform scaling of box vectors
tau_p                   = 5.0                ; time constant, in ps
ref_p                   = 1.0                ; reference pressure, in bar
compressibility         = 4.5e-5                ; isothermal compressibility of water, bar^-1
refcoord_scaling        = com

; Keep system temperature fluctuating physically correct
tcoupl                  = V-rescale           ; modified Berendsen thermostat
tc-grps                 = Protein Water_and_ions
tc-grps                 =  
tau_t                   = 1.0 1.0  ; time constant, in ps
ref_t                   = 50 50      ; reference temperature, one for each group, in K

; Settings that make sure we run with parameters in harmony with the selected force-field
constraints             = h-bonds   ; bonds involving H are constrained
rcoulomb                = 1.0       ; short-range electrostatic cutoff (in nm)
rvdw                    = 1.0       ; short-range van der Waals cutoff (in nm)
vdw-modifier            = Potential-shift-Verlet ; Amber specific
DispCorr                = EnerPres  ; account for cut-off vdW scheme
coulombtype             = PME       ; Particle Mesh Ewald for long-range electrostatics
fourierspacing          = 0.125     ; grid spacing for FFT

; mode for center of mass motion removal
comm-mode                = Linear
; number of steps for center of mass motion removal
nstcomm                  = 100
; group(s) for center of mass motion removal
comm-grps                = Protein Water_and_ions

; OUTPUT CONTROL OPTIONS
; Output frequency for coords (x), velocities (v) and forces (f)
nstxout                  = 10000
nstvout                  = 10000
nstfout                  = 0
; Output frequency for energies to log file and energy file
nstlog                   = 500
nstenergy                = 500
; Output frequency and precision for xtc file
nstxtcout                = 500
xtc-precision            = 1000
